18
Properties=species:S:1:pos:R:3 energy=7.951720
N 44.195 -3.177 8.871
H 44.455 -3.362 7.881
H 43.515 -3.950 8.724
H 44.820 -3.343 8.056
C 43.701 -1.841 8.993
H 44.444 -1.363 9.632
C 43.738 -1.184 7.605
H 43.283 -1.871 6.892
H 44.741 -1.347 7.210
C 43.128 0.189 7.549
H 42.664 1.081 7.970
H 42.148 -0.182 7.249
S 44.340 1.458 7.911
C 45.824 0.489 7.683
H 45.987 0.918 6.694
H 46.240 1.121 8.468
H 46.541 -0.331 7.723
C 42.288 -1.932 9.563
19
Properties=species:S:1:pos:R:3 energy=8.128070
N 44.195 -3.177 8.871
H 44.455 -3.362 7.881
H 43.515 -3.950 8.724
H 44.820 -3.343 8.056
C 43.701 -1.841 8.993
H 44.444 -1.363 9.632
C 43.738 -1.184 7.605
H 43.283 -1.871 6.892
H 44.741 -1.347 7.210
C 43.128 0.189 7.549
H 42.664 1.081 7.970
H 42.148 -0.182 7.249
S 44.340 1.458 7.911
C 45.824 0.489 7.683
H 45.987 0.918 6.694
H 46.240 1.121 8.468
H 46.541 -0.331 7.723
C 42.288 -1.932 9.563
O 41.696 -3.002 9.526